LAMMPS data file via write_data, version 2 Aug 2023, timestep = 150000, units = metal

8000 atoms
1 atom types

-0.5355589775668221 65.42756012956522 xlo xhi
-0.5355589775668221 65.42756012956522 ylo yhi
-0.5355589775668221 65.42756012956522 zlo zhi

Masses

1 118.71

Atoms # atomic

6 1 1.4020111346848727 1.3755954745323073 1.16619227265999 0 0 0
7 1 1.0770673168042706 4.310670491183164 4.685407591354683 0 0 0
803 1 2.8337999704858556 2.634467200239066 6.207758531720098 0 0 0
5 1 4.484350098493689 1.2094943271815433 4.297795004528048 0 0 0
8 1 4.349076343659921 4.4664750746250785 1.2896956744211914 0 0 0
2 1 -0.3291854447105538 2.969491912682027 2.622139040151655 0 0 0
10 1 6.111835331957731 2.668467781329003 2.5772444845484737 0 0 0
14 1 7.931237931447043 0.9242753942690543 1.2163491791101515 0 0 0
15 1 7.667779106104161 4.344683448711079 4.415176021453779 0 0 0
811 1 9.367335341779002 2.826506318526028 6.061186463185367 0 0 0
889 1 5.925545215725213 6.025664123852668 6.077445095385845 0 0 0
814 1 7.538646770352647 0.8651051882220218 7.696906518874499 0 0 0
11 1 9.306247043697471 2.7925112044520377 -0.4446119777181811 0 0 0
809 1 5.928638049543718 -0.5195713977730863 5.900495131806236 0 0 0
100 1 15.819294615690985 6.001447881849636 2.881957993886094 0 0 0
18 1 12.572206576149284 2.65527029318206 3.0092673137274635 0 0 0
22 1 14.17194257240657 1.099612048008532 1.2114035544442991 0 0 0
23 1 14.156742537727604 4.39997526685642 4.531096324849948 0 0 0
13 1 11.0614801997671 1.1009717847184726 4.599621581611841 0 0 0
16 1 10.886925041139197 4.369197062086383 1.327365929003917 0 0 0
97 1 12.262461844996578 5.994478341441738 -0.5061385853243003 0 0 0
819 1 15.77712214730991 2.8076000847394025 6.067993143498769 0 0 0
822 1 14.142090362174367 1.0229781747121858 7.630702782326198 0 0 0
84 1 2.673040011595112 6.107244363029774 2.842142218010371 0 0 0
961 1 -0.4294193467211329 12.641541631474889 6.1940101373992436 0 0 0
88 1 4.414581536606179 11.047825965013276 1.1263269500415358 0 0 0
85 1 4.216450127409452 7.825595332903557 4.450389921057298 0 0 0
883 1 2.5188126060218856 9.339542849494018 5.929375821251913 0 0 0
86 1 1.3355848101958578 7.845946524234508 1.1068245459552217 0 0 0
87 1 0.8476689757223879 10.992418492243589 4.425646120845437 0 0 0
888 1 4.181091439808736 10.862683308326526 7.525049950949951 0 0 0
89 1 6.18745545613296 6.228840752327179 -0.3788870829145563 0 0 0
172 1 9.202713708391867 12.51151794215665 2.8552952338338753 0 0 0
894 1 7.90341232913195 7.880133746692598 7.700540217057551 0 0 0
92 1 9.299607146606066 6.204311155552376 2.885648038615304 0 0 0
891 1 9.311019636095235 9.672934448764174 5.875737557093458 0 0 0
90 1 5.98033767969956 9.23471370975892 2.7599791773828897 0 0 0
94 1 7.980526690573793 7.923035431017958 1.223078434945239 0 0 0
95 1 7.336484777476685 11.005793127755256 4.330089919524538 0 0 0
169 1 6.318102094660795 12.613547599259352 -0.45700108000959005 0 0 0
103 1 14.227164240732193 10.976656023440654 4.510422762125223 0 0 0
977 1 12.457426158973039 12.560913153450937 6.179448987802555 0 0 0
897 1 12.546075954821028 6.3182881407005675 6.095311930654514 0 0 0
899 1 15.930087042146091 9.412661649434476 6.104316613256402 0 0 0
98 1 12.662177258506969 9.390673016783794 2.5810324236822484 0 0 0
93 1 11.156010068079611 7.946617839089118 4.260920579256685 0 0 0
102 1 14.041436938479213 7.645367004997993 1.095641091144952 0 0 0
96 1 10.833058565794222 11.037727161683057 1.050652998713811 0 0 0
99 1 15.791724945073344 9.290702626823515 -0.49847345293663636 0 0 0
807 1 1.1381860100766938 4.596664727342909 11.016019529156674 0 0 0
1603 1 2.7501083641821777 2.8764155637144975 12.485675108620985 0 0 0
805 1 4.567220396431263 1.3048297166066396 10.957819470046905 0 0 0
1606 1 1.0747055358085207 1.071465159618732 14.050377889608756 0 0 0
1608 1 4.421227138138788 4.833122153919412 14.22806428527053 0 0 0
1604 1 2.5481800664988294 -0.41762062321292853 15.898661876726294 0 0 0
806 1 1.258145590072497 1.0486851789903084 7.920557006450988 0 0 0
808 1 4.327379502378369 4.405981808329661 7.738942428269667 0 0 0
804 1 2.745810747231848 -0.4437980349560462 9.638001646032787 0 0 0
810 1 6.052015455696877 2.8719485072502176 9.108919501674785 0 0 0
815 1 7.580076842988804 4.4795269844315 11.11275050875759 0 0 0
1611 1 9.079532126833339 2.7737028423760126 12.657070133307379 0 0 0
1614 1 7.627470056273577 1.0494995735139567 14.581814262873742 0 0 0
1609 1 5.924761297516211 -0.5167771345327306 12.713581824710607 0 0 0
1617 1 12.46715218673022 -0.5077899362429068 12.647188193781243 0 0 0
818 1 12.676859532224444 2.7784434011366015 9.204535874498154 0 0 0
823 1 13.98514570469044 4.573833586420281 10.857405458493869 0 0 0
813 1 10.802619454764121 1.0335039451977999 11.140960573760772 0 0 0
1622 1 14.335958555448478 1.297970785376939 14.369176720659315 0 0 0
1616 1 10.75568548813242 4.3835833188442255 14.25386227942903 0 0 0
1620 1 15.93487367595645 -0.4051423847641963 15.868769528305197 0 0 0
1619 1 15.748737636936045 2.958302567329174 12.49406888751637 0 0 0
820 1 15.902810797185428 -0.5096263401893716 9.403110950404624 0 0 0
816 1 10.963539643466722 4.519781037334674 7.771639934832802 0 0 0
884 1 2.660826672234997 6.313386790379848 9.530914507689378 0 0 0
1682 1 -0.48219385003845616 9.371550796394956 15.810271929969616 0 0 0
887 1 1.1880172928447565 11.04354511988692 10.943512094932832 0 0 0
1683 1 2.6614777993133614 9.460122460117747 12.734336483989976 0 0 0
885 1 4.162023443804408 8.061803092261151 10.994693963516157 0 0 0
1686 1 1.1181320591620754 7.598627489045938 14.39817839097811 0 0 0
1688 1 4.422198143796551 11.093629506503182 14.414391396848986 0 0 0
886 1 1.068038670757562 7.758078223111861 7.765627877149496 0 0 0
892 1 9.264168620029436 6.06857943341961 9.434486593028497 0 0 0
1689 1 5.957370695080638 6.390284156495663 12.435819157586304 0 0 0
890 1 6.180228041777663 9.475388592963697 9.313591924082887 0 0 0
1694 1 7.601632735717137 7.683884396848233 14.481434935119845 0 0 0
1691 1 9.283926582751565 9.498150101094046 12.709133704857683 0 0 0
895 1 7.546585145377588 11.218848415979165 11.086080533240903 0 0 0
972 1 9.315083138025056 12.568929880956796 9.427104493643785 0 0 0
902 1 14.405548985602858 7.626042703026842 7.751581529316386 0 0 0
896 1 10.869087069137683 10.86475167539248 7.867569851416649 0 0 0
893 1 11.076371103889626 7.95369436607373 11.073097709620209 0 0 0
903 1 14.07938575678216 11.183901608449826 10.97387465409408 0 0 0
1702 1 14.355861812204214 7.683645878207372 14.228814868321845 0 0 0
898 1 12.687088667505884 9.322371061281183 9.253118559199594 0 0 0
1696 1 11.288302325502816 11.047953971991902 14.23778317604017 0 0 0
1697 1 12.520962575663253 6.2173539651071685 12.716342050396271 0 0 0
1699 1 15.903083091583511 9.44967877771981 12.566009093446102 0 0 0
2406 1 1.033943927211019 1.2258871382605023 21.118862657555695 0 0 0
1607 1 0.9825883929543371 4.425770920269386 17.754923420506977 0 0 0
2403 1 2.706058901898732 2.78046332523728 19.25886869063162 0 0 0
1605 1 4.147675787167865 1.2052096406443475 17.695619824568222 0 0 0
2408 1 4.347803835050195 4.499442835176283 20.77729446465621 0 0 0
2402 1 -0.4242311967944232 2.8583745564830787 22.713760878943706 0 0 0
2405 1 4.418227121136967 1.0164532077343427 24.060058000231702 0 0 0
1684 1 2.782130023215212 6.025034135245207 16.265394709674265 0 0 0
1602 1 -0.46550852389139863 2.7268832566843413 16.101602986502257 0 0 0
2409 1 5.978632075750667 -0.3199624311569784 19.459740168308308 0 0 0
2410 1 5.919494864579348 2.705173507951003 22.39536391901463 0 0 0
2414 1 7.848527443393184 0.9494146296062023 21.2296700980248 0 0 0
1615 1 7.793361594920546 4.268206852586758 17.6375865187459 0 0 0
2411 1 9.409317886758648 2.5534589798675538 19.320004853873694 0 0 0
2415 1 7.559243005023623 4.268622013464221 24.087783210294518 0 0 0
1610 1 5.778945365439121 2.8658533997294735 16.070801048000064 0 0 0
2413 1 10.987586963221634 1.1991063820986012 24.19152032125454 0 0 0
2500 1 15.79422782226544 5.831073009384976 22.639769306555927 0 0 0
2418 1 12.428703318269088 2.81082345601582 22.4229028366059 0 0 0
2422 1 14.229568619933605 1.0068647763227503 20.820521819964767 0 0 0
1623 1 14.219659734451048 4.430804437414683 17.703733521887727 0 0 0
1613 1 11.096047702952616 1.0781132131267956 17.53577468997738 0 0 0
2416 1 10.808745916310503 4.598673369495434 20.739323779216438 0 0 0
2419 1 15.944162666935533 2.7022235868203466 19.475417401768826 0 0 0
2423 1 14.224219039312757 4.206855650941357 24.147329905165417 0 0 0
1618 1 12.51726501202549 2.9473159757384564 15.989733925811596 0 0 0
2484 1 2.7555767770921205 6.181215403037175 22.607495575663197 0 0 0
2486 1 1.1049816107558295 7.834078116919892 20.8742121587922 0 0 0
1687 1 1.1659935384988087 11.006102735995267 17.709128386455628 0 0 0
2483 1 2.9047189275361123 9.368745721947892 19.30862359727199 0 0 0
1685 1 4.548799301310554 7.853864587276409 17.49022704516446 0 0 0
2488 1 4.656093330252872 11.28225719499965 20.77218694482777 0 0 0
2481 1 -0.5032338140971859 6.162922597158567 19.36996338510362 0 0 0
2572 1 9.369659524041303 12.586787482042096 22.409676766372208 0 0 0
1690 1 6.01468698419593 9.658054928985589 16.048818561174798 0 0 0
2489 1 6.172487858055235 6.144260844934495 19.120937202173902 0 0 0
2492 1 9.113442012390674 6.064914411665474 22.562942021907926 0 0 0
1692 1 9.39324416633658 6.190302622681541 16.01623349583855 0 0 0
2491 1 9.281185672659626 9.355952388861823 19.33520856237577 0 0 0
2490 1 5.891876453019283 9.468343044879644 22.66079454609885 0 0 0
1695 1 7.698727110538561 11.282805833038115 17.732111267286164 0 0 0
2494 1 7.484222465932447 7.921184698023842 20.961311501639887 0 0 0
2495 1 7.62808616601021 11.20547865067265 24.173352760925162 0 0 0
2496 1 11.199635008426279 11.151981399699851 20.856709937338493 0 0 0
2497 1 12.571796219477992 6.156095832813206 19.275863045404872 0 0 0
1703 1 14.55942834901176 10.872499468090606 17.693170504101214 0 0 0
2502 1 14.276175682674026 7.741604592459964 20.84569280223009 0 0 0
2577 1 12.747330424541087 12.647990297100272 19.169877188835834 0 0 0
1693 1 11.018147300843886 7.99985052089478 17.664045435129733 0 0 0
2498 1 12.764615707820141 9.316467875311194 22.50832442099456 0 0 0
1698 1 12.78888382701559 9.374243739532384 16.05518360145709 0 0 0
3203 1 2.7939402230531765 2.626359434259822 25.781591546699538 0 0 0
3206 1 1.2236860406091497 0.8909197462778871 27.413619109266826 0 0 0
3207 1 1.0714969640787306 4.581485289082449 30.764469263295478 0 0 0
3205 1 4.287369583228864 1.1784555186268395 30.69685696457619 0 0 0
3208 1 4.210990058269172 4.564859175864844 27.58250264996188 0 0 0
2407 1 1.3123563300534158 4.473427274831432 24.255585518089745 0 0 0
4781 1 2.694759302593914 2.751625714782177 32.25796643112129 1 1 0
3209 1 6.102073070647238 -0.5198382872924441 25.817192276135 0 0 0
3211 1 9.273419722602897 2.7627375412502335 25.77174396731922 0 0 0
3210 1 5.88879527319543 2.907848362271964 29.248042447081477 0 0 0
3214 1 7.5961095140486155 1.2990600151608296 27.525782175753765 0 0 0
3215 1 7.554302495912808 4.668205390296975 31.07795987211356 0 0 0
3212 1 9.213692756325663 -0.45651871419496803 29.00737124682951 0 0 0
3289 1 5.992589623727323 6.042229675826166 25.92162516241144 0 0 0
3218 1 12.640895982248265 2.5974144488523367 29.23468074680607 0 0 0
3222 1 14.15644669972235 1.181960221305388 27.53756825085836 0 0 0
3223 1 14.26962661377441 4.565154548516376 30.737137078229527 0 0 0
3213 1 10.70615954692788 0.9465874756254162 30.858300958589904 0 0 0
3216 1 11.089504336881282 4.400440582818317 27.54523798237729 0 0 0
3220 1 15.912865892538502 -0.4822287711620561 29.026455481347952 0 0 0
3297 1 12.612686186007307 5.930634253760721 25.877924892588716 0 0 0
3219 1 15.886529604150994 2.7954511936450195 25.916682246756373 0 0 0
2485 1 4.355554520512585 7.920927396131534 24.34864071436118 0 0 0
3281 1 -0.4963036076007449 6.151334227094245 26.05497454689862 0 0 0
3284 1 2.59802053707558 6.3047333488325 29.253798418679594 0 0 0
3283 1 2.7451648552582637 9.499535372576274 25.810063499165057 0 0 0
3286 1 1.0563603538015474 7.993873700274158 27.586535895608648 0 0 0
3287 1 1.0958051657391266 11.24798760506329 30.780544848491566 0 0 0
3285 1 4.303002081179198 7.940629500297973 30.8256259269758 0 0 0
3288 1 4.1798538628205355 11.266637770004 27.438587937137218 0 0 0
2487 1 1.022128234825203 11.156231178671185 24.35029797852887 0 0 0
3372 1 9.185073272022347 12.59539922695753 29.027749021120787 0 0 0
3295 1 7.584267116128704 10.98745155952438 30.72038658394591 0 0 0
3290 1 5.8963254663546545 9.47888579379273 28.959621635390242 0 0 0
3292 1 9.164541983336557 6.085215680888817 29.22165459921589 0 0 0
3291 1 9.264406943700305 9.304714603048094 25.705179003869343 0 0 0
3294 1 7.543269927036221 7.6200137023946315 27.574259392228566 0 0 0
3303 1 14.216927869455446 11.047817062411735 30.75901438220697 0 0 0
3293 1 10.893678385209386 7.910155345160188 30.642264332916653 0 0 0
3302 1 14.322686359054975 7.805798241640053 27.469528141736685 0 0 0
3300 1 15.825575440094958 6.105970598866852 29.127588058528552 0 0 0
3298 1 12.66120025820004 9.415529024584341 28.870590350121656 0 0 0
2493 1 11.009880343861315 7.655369306246051 24.235386059810395 0 0 0
3296 1 11.081187558248523 11.108707312108013 27.24716494028073 0 0 0
2503 1 14.26646719758383 10.973739277974506 24.264795410127054 0 0 0
4170 1 4.516617254221909 3.3480962456022954 34.52342252173351 0 0 0
4962 1 0.56212157852385 1.88425540136079 37.72056788587447 0 0 0
6904 1 3.1021947123452778 -0.06338431236368997 39.7298352837932 0 1 0
7671 1 4.555447792714217 1.3451000457039402 37.101535410991765 1 0 0
4004 1 2.870629390604235 3.9110848866814045 39.39865204307615 0 0 0
5128 1 1.0774096205105572 4.6000653736905 36.6787416647971 0 0 0
6618 1 3.0820989862746235 0.4100594039271586 34.226058252941726 1 0 0
4961 1 -0.05705607947434552 -0.12361462792272021 32.52862761367357 0 0 0
5589 1 7.733478260453559 0.8695882684989236 36.77828908990206 1 1 0
4954 1 7.144036023570253 4.729740934694145 34.80853711831806 1 0 0
7372 1 6.5705792833895815 3.7121725731287882 37.856495989329005 0 0 0
4048 1 9.83197601031959 2.9160166930815348 38.15644728673001 0 0 0
5462 1 10.11376785757216 3.7997517555194777 33.16673299255371 0 1 0
6529 1 8.378128514583148 1.4867687494542607 32.674283965370854 1 0 0
5910 1 10.709112123269062 2.100381642684533 35.43306272235374 1 0 0
6669 1 12.277769970692507 3.760264949436606 40.09003598888384 0 0 0
7689 1 15.634949863830606 4.167558206124226 40.17726051829048 0 0 0
7320 1 14.785854726842803 4.342659738709438 34.78938052665545 0 0 0
7755 1 12.869668048441829 1.9809517515329764 32.77297720818951 1 0 0
4008 1 13.023813215412964 2.189565090547434 37.15000864763906 0 0 0
5470 1 13.373322368013307 0.487768158759025 40.06904611125454 0 1 0
4063 1 1.2276628136197212 7.253265553055039 39.37790337991252 1 0 0
6730 1 4.330008083572857 9.94788748616101 40.399278152555304 0 0 0
5457 1 4.672895776133353 6.661433724542181 39.617598695893655 0 1 0
4956 1 1.5363687653213578 10.390731138477028 33.77942007359794 1 0 0
5571 1 -0.09929196514313683 7.648166114390581 37.18637118336768 1 1 0
5757 1 1.2654507064082026 10.211300347446565 40.16880589861482 1 0 0
4489 1 1.6636600533592605 7.521208185383305 34.205750445464446 0 0 0
5843 1 0.3890461796783649 10.624576527927486 37.2884143054776 0 0 0
6724 1 3.279451204668254 9.638075385181983 37.489695580528995 0 0 0
4260 1 3.3611437333184875 6.384558623375046 36.66675196496187 0 0 0
4360 1 4.355577279300609 10.002196227452771 33.33839061011262 0 0 0
6527 1 10.096390366002476 10.351634445190182 33.03208911850141 1 0 0
4160 1 5.301059942959257 7.042607967586265 33.40051430411301 1 0 0
6809 1 7.63029766075027 7.613819227719231 35.197121350253354 0 0 0
5785 1 6.660172445344446 11.144790715652908 38.59211585076299 0 0 0
5153 1 10.01746571791949 9.13210637965624 36.03582261829403 0 0 0
4740 1 7.9774922970054325 10.702250325251766 35.240136693773294 0 1 0
5764 1 7.514833138064081 8.469349913512673 38.40081369533264 0 0 0
5301 1 10.08665123380085 11.618974266512717 38.59297877522726 0 0 0
6961 1 5.980088547498376 12.384240217736648 32.70700982933973 0 0 0
4827 1 10.167351066278119 7.2152138332317834 33.64022563980304 0 0 0
6907 1 9.638169855007773 6.549315064898748 40.080897499313885 0 0 0
6644 1 12.847858674268753 10.665717911991855 34.11024736329192 0 0 0
7051 1 11.888382414226317 8.206320687536191 39.20522189555191 0 1 0
7876 1 15.324615633507987 9.004721514481536 37.748508960564216 0 1 0
6986 1 13.096423328642892 6.07246987764668 32.961002129245315 0 1 0
4983 1 13.72877442005547 6.357577699866068 38.51054077216647 0 0 0
6602 1 12.464818526387912 7.998848410231534 35.876688710426045 0 0 0
5039 1 13.29330540002824 11.143926399253088 37.13656941286096 1 0 0
4327 1 14.98452770617995 12.476471444693852 39.08049037284447 0 0 0
6502 1 14.84619027923312 8.639570640474915 32.49620716631736 0 0 0
4659 1 1.8165730529334052 0.16636750089477406 47.03612331076995 0 0 0
4665 1 2.2757012244738903 5.75224596566744 41.449422893735104 0 1 0
7285 1 3.256329164605176 5.0525074098978 44.07996020527889 0 0 0
4547 1 1.5369816641164438 3.3742346106276266 45.585935527554085 1 1 0
5808 1 4.286944614626717 5.63288422308881 47.37422118104427 0 0 0
7543 1 4.061349772598511 1.9928105523488602 44.33495355359877 0 0 0
5865 1 2.148732148995706 3.3084743625578823 48.20099519272748 0 0 0
4211 1 -0.0860476431735633 1.6557340563925638 43.51356155866647 1 0 0
4812 1 2.314102565694911 2.061868411401887 41.83212292008452 0 0 0
4869 1 4.789771531627534 2.7969909072201884 47.46398011292434 1 0 0
6661 1 5.795769433844674 0.901007091169782 40.71216925610009 0 0 0
5594 1 8.766210009504249 1.9710249681304373 41.757434820036735 1 1 0
4084 1 6.134578140422425 4.340132496466292 41.34771133036466 0 0 0
7327 1 6.110829678040915 4.655485353838109 45.29246839250029 0 0 0
5694 1 8.285734039874686 0.45538702003095216 44.8536185600055 0 0 0
5501 1 8.07593601221275 2.7590414695638983 47.43050222405267 1 1 0
7506 1 10.447293785066556 3.3240140112684857 43.60000778104802 1 0 0
7351 1 8.177906623215623 5.4035370111669145 43.67925667889735 1 0 0
5660 1 15.122731195794467 2.6660316098033117 45.30289391136842 0 0 0
5022 1 10.71778769665592 2.7263702565642527 46.63561299229872 0 0 0
4028 1 13.038704176318273 4.947291968815472 47.309833604378625 0 0 0
6783 1 14.280079907011626 4.61045285791771 42.82637978876858 0 1 0
7303 1 12.871836871043577 0.585608835393283 46.43534692829742 0 0 0
4907 1 12.62964694512542 1.640413736415143 42.581127587322406 0 0 0
6551 1 14.71560864458709 1.377316733821382 48.77042632003412 1 0 0
6642 1 4.119308951843478 10.76000360720966 43.611142598159965 0 0 0
6500 1 1.1760977313850767 7.448623223615703 43.586664601394396 0 0 0
4568 1 1.4122961308126083 11.991313874164993 43.92872582326178 0 0 0
7272 1 1.1354755113956172 6.506493551512975 47.76056445629866 1 0 0
4353 1 3.722914936596091 8.118196763077052 45.18190861893743 0 0 0
7907 1 4.4793658284834414 9.455956139832427 48.05962171009029 1 1 0
4264 1 0.43352301372435803 11.41899780349949 46.572280600893706 0 0 0
7139 1 -0.5246708746145003 8.651300438789452 45.64683695070416 0 1 0
6390 1 6.6350966263315705 7.4465531747618074 45.29809699876528 1 1 0
5686 1 5.44315576876037 8.107580269441508 42.43921334070205 0 0 0
4213 1 7.410089758190624 11.157607964180874 41.26139603265042 1 0 0
4979 1 7.608371432583555 11.959078232078774 44.421389962760585 0 0 0
7577 1 8.485858169356396 9.351495886490692 46.60477851955849 1 0 0
6110 1 9.76001450752491 11.485952343960685 47.49101631705911 0 1 0
4870 1 8.543973150410102 8.358370904088451 42.85385214501101 1 0 0
5688 1 9.486997718984293 6.307037139718588 46.499482680124515 0 0 0
5995 1 6.329016342047231 11.769331118504493 47.08622708988266 1 0 0
5123 1 14.290522795652551 8.648736129806009 41.63719297223836 0 0 0
4320 1 15.105412167534425 12.158019379014947 41.86443135466856 1 0 0
5482 1 11.515604750076092 11.423190227127206 41.0265567225136 0 1 0
7541 1 15.097995155399772 12.325589857668234 48.50609172293552 0 0 0
5837 1 12.418033857860681 7.9717591233637135 47.88171802776726 1 0 0
7385 1 13.893683327258302 11.591141630341596 45.826797157293555 0 0 0
4214 1 11.73312735594973 6.277901903363613 42.06330108638981 0 0 0
5921 1 13.299619220231708 7.225424262040169 44.89059470487682 0 0 0
6097 1 11.712660876922607 9.102853491106941 43.21248375811335 0 1 0
5879 1 15.297977672541112 8.947452245203987 44.9685119883425 0 0 0
4051 1 1.0727968755951083 1.0822244398618683 49.82269074340886 1 0 0
7681 1 2.915157979560332 1.6620344415133577 54.897123093877646 0 0 0
4463 1 -0.41504276451056227 3.066033615697962 52.15713834435359 1 1 0
7569 1 1.4170355432764479 4.03694381239126 56.05156967638157 1 0 0
4629 1 2.966906081809825 3.85310122799467 52.205967774717855 1 1 0
6635 1 4.093008962437485 0.8742223234003237 49.582670371176505 1 0 0
6613 1 -0.2126014017424793 -0.10441326759006818 53.03813044951245 1 0 0
5334 1 5.669424821771814 2.3919567010053844 52.457348731673854 0 1 0
5759 1 5.384426584561823 0.3996762944892383 55.1859445918772 1 0 0
4332 1 7.6576643465657765 3.944141854507743 50.13658852472429 0 0 0
7204 1 8.257488412516572 0.37878578569472043 54.6670725694649 0 0 0
6751 1 7.24680544679246 3.3982485507936433 55.20582774398755 0 0 0
7315 1 10.051523980028623 2.9593426466326695 52.14883021535475 0 0 0
6186 1 7.549236504109931 0.7323581684265189 50.53701836203065 0 1 0
5498 1 10.274065688835515 2.8299413753806224 55.441426289093734 1 1 0
4802 1 10.070655105775547 -0.1828340754912249 49.36907848762308 0 0 0
5075 1 14.932404488679229 4.79704005898055 53.60357004778892 0 0 0
5854 1 14.37553801317779 3.0336883831487986 51.17381351858924 0 0 0
6628 1 11.8451339693757 2.646745770874628 49.52068907972262 0 0 0
5975 1 11.928037393901764 5.016470847048686 54.03036045796873 0 0 0
5768 1 12.826650015554222 5.653376931803944 56.57245628157496 0 0 0
5379 1 12.41160862217087 1.2595119167047715 53.050588416092026 0 1 0
4909 1 14.314782108697957 2.4886097016128197 56.47288921068936 0 0 0
7321 1 3.779350060717763 12.156621869810584 54.94484686279295 0 0 0
5086 1 4.4792720931773875 6.32755553071773 54.73160787878046 0 0 0
5994 1 0.6632043611709093 12.549333419170715 55.64458603310628 1 0 0
7525 1 3.1134635431938937 6.374550226866102 50.27232150985485 0 0 0
5100 1 1.582603101107257 11.805501107793114 49.49513908865643 1 0 0
6438 1 4.354633597780637 10.504431407763406 50.93657258833048 0 0 0
6794 1 1.7487692799749057 6.219330577814293 53.92480785198758 1 0 0
5064 1 2.2664859596777975 8.825763892095251 55.94658977717124 0 0 0
7767 1 2.3946430005100945 12.577229984233856 52.48641662639804 0 0 0
7696 1 0.6791998037991198 10.368773219866968 53.68840840462978 0 1 0
7446 1 2.4665772352275135 8.416306326521735 52.31117641577078 0 0 0
4984 1 -0.050080223072283825 8.641199770722249 51.44096885456761 0 0 0
7374 1 -0.21422720925276095 6.130569148201046 50.33831251486186 0 0 0
5798 1 7.456921415448964 6.431594714942993 52.601238822648746 0 0 0
7430 1 7.425736360771295 10.731369843666439 50.79267115378988 1 0 0
7778 1 8.631667587105973 6.906786439192797 49.68478456363114 0 1 0
4890 1 5.858735678898102 8.2641594683191 50.5554356709778 0 0 0
4838 1 6.231935581784473 9.615512824298644 54.3420881989518 0 0 0
5612 1 7.269216140125286 6.578408542377747 55.7070452847765 0 -1 0
7679 1 5.931547991680021 12.550577914050761 52.50145970070939 1 0 0
5111 1 8.891942400387789 10.781142772491853 55.54203948183904 1 0 0
7262 1 14.959130930686191 10.887735851357752 53.62222339510378 1 0 0
6781 1 14.778851583754555 7.741717141580507 49.25348240413863 1 0 0
7951 1 13.001996024944459 10.178350655493928 56.249964662826 0 1 0
6240 1 13.083375371676919 6.222474597196084 51.52954986753982 1 1 0
5606 1 11.390130149088408 10.440565340686405 53.44358301882461 0 0 0
5820 1 10.532768409348307 9.482642803373992 49.24765776703603 0 0 0
7409 1 10.470740575296453 6.749837058419039 52.19664699622319 0 0 0
5564 1 13.147449443091064 10.101174109404662 51.185232718479824 0 1 0
4731 1 15.1301189578186 7.828830621311245 55.87417961947659 0 1 0
3 1 2.8542759295749374 2.7886644562061225 65.21695133663027 0 0 -1
4809 1 2.1095720386873604 5.032193407461764 63.52859378778748 0 0 0
5913 1 4.501161771539614 1.640932125645287 60.06675237696462 1 0 0
7948 1 3.710996794676603 0.9801210426849088 63.23799320317468 0 1 0
7281 1 1.3031071749684309 1.7758125558382953 60.600506652526036 0 0 0
6153 1 1.80949718826533 4.839691526194908 60.38298862458226 1 0 0
6888 1 4.259977605682614 5.450614981302197 61.57509441795592 0 1 0
5884 1 4.69491337808526 5.021232457107741 58.060874741655496 1 0 0
4820 1 2.903156409929902 2.541783966216197 57.84287301431481 0 0 0
7277 1 8.007734815721363 4.746015142739794 63.907780899437455 1 0 0
4194 1 6.994588529999922 3.5921998367017762 61.63875958969402 0 0 0
4357 1 7.7611034831821994 3.7294048244590443 58.82479558904435 0 0 0
6629 1 10.293793716156701 5.206213052933325 61.568683457408675 1 0 0
4411 1 8.915071722419057 -0.32555107197060096 63.16954216495276 0 0 0
6895 1 10.14491205737195 1.1004251535524578 58.31082054343239 0 1 0
7888 1 6.961689084629723 0.9587412410395058 57.8466935510371 0 1 0
7982 1 15.755083546011859 5.929786833726091 58.24688913596265 0 1 0
4093 1 10.618877775638305 1.87545507792109 61.28260099668263 0 0 0
6392 1 11.418575880114563 1.6154886688574417 63.957813057440205 1 1 0
19 1 15.803046032828934 2.6513548369248934 65.42198420138058 0 0 -1
7114 1 13.636595497682418 2.805972636658795 62.30381221000489 1 1 0
7384 1 13.953089164912226 2.2640767090245886 59.49462413132801 0 0 0
6496 1 15.760559405746736 -0.24745129518468958 58.04469970399623 0 0 0
6762 1 15.460458772661992 -0.08106565620704755 62.38310571424493 0 0 0
6859 1 10.91462163387627 3.9980809129425214 58.74445181400441 1 0 0
6867 1 12.090115418752184 -0.3633977255740323 61.703399608012724 1 0 0
4958 1 12.711412353568443 -0.0913027006819543 57.58069115246204 1 0 0
6725 1 -0.2922722273224605 10.775939513361969 57.40444439954028 0 0 0
6490 1 3.0256183850384515 8.035529075867847 60.138457422669525 0 0 0
4882 1 2.7519348562730177 7.865807707882588 63.116279698280195 0 0 0
83 1 2.7498103693473275 9.602988418234222 65.3286909119629 0 0 -1
4078 1 4.470133875232706 10.944220267126529 62.16821497293016 1 0 0
6376 1 1.6404033806374558 11.792697879261206 63.28218034390928 1 1 0
5674 1 2.868788133103365 11.301517483323584 57.51612883520935 1 0 0
7609 1 0.07048026109692541 7.823748777798731 57.948391404333435 0 0 0
6318 1 -0.22448606606516686 7.811660054415541 62.90968468681785 1 0 0
6335 1 8.252709982993204 7.063207894053368 62.3436037583742 0 1 0
4252 1 5.777099043842078 7.787733216704272 58.21046476835136 0 0 0
5912 1 6.806920009325991 10.99162033971779 57.285855369483734 1 0 0
7383 1 8.578265220014012 7.044432634646458 58.74182125969955 0 0 0
7887 1 7.3236638441065045 12.656546387666895 60.6167605915584 0 1 0
6680 1 7.423761393041399 9.837459756216889 61.08995359134926 0 0 0
5951 1 6.311950150994346 9.026520938298919 63.61991364907966 0 0 0
6640 1 8.286614801756798 11.57465991801125 63.40439379381259 1 0 0
91 1 9.180570057929232 9.610699309353809 65.28561840292036 0 0 -1
7337 1 9.977688279900768 9.38680487771311 58.497977861957416 1 0 0
5471 1 14.146172104728349 6.492711855931396 63.39472791663696 0 1 0
5477 1 12.492466158785199 7.122493795239814 60.65881081635589 0 1 0
7453 1 10.545880204359182 9.836625522431696 61.99860668420324 0 0 0
7088 1 13.465139246450008 10.157812807849469 63.86185909365219 1 1 0
7597 1 10.986064040587593 7.726929463901264 63.62588288189656 1 0 0
7163 1 14.491774967734445 8.711870043248929 58.80020600042781 0 1 0
7346 1 13.226626877319816 10.539186374392177 60.77024584932265 1 0 0
166 1 1.2167458472677115 14.472761830334942 1.1551726801681486 0 0 0
165 1 4.549586434304875 14.368391758514896 4.290506042578799 0 0 0
167 1 1.0644528017948722 17.566353715201707 4.2734746825714724 0 0 0
963 1 2.6707831372946345 15.825710863079458 5.8867123529108545 0 0 0
168 1 4.109710285567701 17.9672546059168 1.009369994689653 0 0 0
164 1 2.605366543719201 12.684547444832164 2.896177590552152 0 0 0
1041 1 -0.32245960048585465 19.137496958048985 6.217989686688567 0 0 0
968 1 4.355863239266705 17.445395150874393 7.6902362097517365 0 0 0
966 1 0.9366392799238659 14.45896817404303 7.619173096608677 0 0 0
163 1 2.7533736670979447 15.985354190576164 -0.3739890571104496 0 0 0
174 1 7.726583225966028 14.502860445565293 1.2931074237681985 0 0 0
170 1 5.808138863558535 16.09063886573144 2.4675980153796884 0 0 0
175 1 7.632640695883952 17.496421846866983 4.401443220728321 0 0 0
971 1 9.52114799063599 15.888624581468285 6.094350414151048 0 0 0
252 1 9.163176249125284 19.216423916140318 2.7251451115737724 0 0 0
1049 1 5.910414341959804 19.075117104585132 5.898053004355285 0 0 0
171 1 9.261923252607481 16.18376376596419 -0.3897517458742943 0 0 0
969 1 5.864078040468921 12.752325408433885 6.2856694150574475 0 0 0
974 1 7.7973752503723475 14.304871152657046 7.67460695201992 0 0 0
257 1 12.60759836522619 19.245232431636783 -0.4003181574428418 0 0 0
182 1 14.331630383191452 14.268111759713547 1.2420317207993445 0 0 0
173 1 10.961565716920306 14.071281881534988 4.491220202138085 0 0 0
178 1 12.580142048014983 15.830737586437579 2.8773663947607733 0 0 0
183 1 14.46409167620425 17.523751327111437 4.410551429061752 0 0 0
176 1 11.075661363652005 17.59136184611572 1.1516033730043558 0 0 0
1057 1 12.506575005139437 19.12008481018035 5.747080729551361 0 0 0
177 1 12.514290745127191 12.804309838779101 -0.43271823664259956 0 0 0
982 1 14.3742792014647 14.335236773633635 7.524427302194432 0 0 0
244 1 2.68117155300226 19.502361282873217 3.0631891243073763 0 0 0
246 1 1.2224517658567258 20.81824831961025 0.9940001270251502 0 0 0
247 1 1.2366086979481665 24.07124985945619 4.361145866120715 0 0 0
1043 1 2.961943149519619 22.786716629668135 6.154094635855884 0 0 0
245 1 4.511033518782539 21.06045196666178 4.543624471535812 0 0 0
248 1 4.451140229100217 24.02689190570005 1.1613184121918376 0 0 0