LAMMPS data file via write_data, version 2 Aug 2023, timestep = 250000, units = metal

8000 atoms
1 atom types

-1.3119749862476375 59.61997745814958 xlo xhi
0.6449627260670674 57.663039745831746 ylo yhi
-1.0737010025282032 64.69369993442504 zlo zhi

Masses

1 118.71

Atoms # atomic

2002 1 3.7422882736765004 3.969019837114201 1.5143890144495042 0 0 0
4002 1 0.7906155639160404 4.119934789462002 2.1517590606175006 0 0 0
6001 1 3.6067177683353444 0.794873725828066 0.48361831113968456 0 0 0
6002 1 3.642641528786055 1.237328998350876 3.9118282610070763 0 0 0
2 1 0.6763460739063696 1.199376783399228 0.23735637251380282 0 0 0
3 1 0.5700454649300422 1.3617297031776345 4.055122225381129 0 0 0
4003 1 0.4928557064036043 3.947887311120938 5.308890674621924 0 0 0
4001 1 0.8232978300007554 3.92335629798177 -1.0347566422198051 0 0 0
2003 1 3.888623382411942 4.211300803520919 5.477529837100785 0 0 0
4023 1 0.9023319648290462 9.61631266453458 5.117596109059587 0 0 0
2022 1 3.5885105389053704 9.557083350050835 2.0131985249826383 0 0 0
22 1 0.8914197326955007 6.7103832814592295 0.4427625814442142 0 0 0
2023 1 4.0970843297754165 9.857494307998644 5.105249912541707 0 0 0
4022 1 0.634345349354489 9.518032395109715 2.0396974384168107 0 0 0
6022 1 3.6160103819428038 6.3914736845595606 3.375116835761604 0 0 0
6021 1 3.7115107360409594 6.98477383382599 0.346291623565941 0 0 0
23 1 0.7036247074542237 6.637424315684412 4.002230693800436 0 0 0
2004 1 4.298817140186677 4.2659725987419765 8.627562358480292 0 0 0
4004 1 0.6921335899559811 3.9185552321713524 8.452446675522467 0 0 0
6004 1 3.768036681399706 1.1268939810953162 10.108629981478668 0 0 0
4 1 1.0364475073524875 0.9443406036445685 6.995729838882308 0 0 0
6003 1 4.012038067925635 1.447684798683991 7.016275138292478 0 0 0
2005 1 3.8803273487355288 3.9451901940307836 11.711680145956683 0 0 0
5 1 0.7541563178360762 1.2930647396904287 10.03378020168946 0 0 0
4005 1 0.7725833687640762 3.7957174842206136 11.818038063843213 0 0 0
25 1 0.5350908058681458 6.351618196104757 10.24256532025854 0 0 0
2025 1 3.687014982640523 10.139775443149851 11.808209049028056 0 0 0
6023 1 3.8260322573487366 7.241175942867835 6.485988042793324 0 0 0
4025 1 0.4680071053643604 9.44023156296048 11.815136184110802 0 0 0
2024 1 3.7950854986430365 9.904993872569271 8.63716454009059 0 0 0
6024 1 3.8789468802972626 7.0320594933392 9.992260411051953 0 0 0
4024 1 0.6761425725963022 9.607887245395098 8.762913401382571 0 0 0
24 1 0.7558258936168123 7.096595917455854 7.145888071027189 0 0 0
2006 1 4.053890704949855 4.065257476960722 14.687358519920068 0 0 0
4006 1 0.5785662523049167 3.985134594959673 14.951009423445768 0 0 0
6005 1 3.5962490061714307 1.1765908228733835 12.955209549572766 0 0 0
7 1 0.5121027297913163 1.0957873605372253 16.43225855838516 0 0 0
6006 1 3.404866120871544 1.4939878539589895 16.553999234774146 0 0 0
6 1 0.4458470257977838 1.126421773426617 13.42636704163346 0 0 0
4007 1 0.9195068791229923 3.899947443614951 18.620244642436116 0 0 0
2007 1 3.913219827826005 3.9969557805053024 18.344256671756245 0 0 0
6026 1 3.8632412964769296 6.576663667233424 16.1444646068863 0 0 0
27 1 0.6601325402080633 6.436975352849246 16.816855706941375 0 0 0
26 1 0.6035101193497361 6.966631024748672 13.279943113178666 0 0 0
2027 1 3.5936787986872725 9.337592424409932 18.090099565456573 0 0 0
2026 1 3.8005356998666757 9.568086949275727 14.935210568419727 0 0 0
4026 1 0.5484230019374656 9.64236309811745 14.89246299769578 0 0 0
6025 1 3.6668740618971016 6.771030922471816 13.220435796191316 0 0 0
2008 1 3.7142773411551646 3.9833560605931275 21.57257408847907 0 0 0
4008 1 0.5926868564418131 4.08588950126248 21.65997998740193 0 0 0
6007 1 3.8229445103804585 1.4337156911035915 19.910949007853226 0 0 0
9 1 0.7315966013472703 1.2248082782959449 23.28386894654142 0 0 0
6008 1 3.6900820962779406 1.2028855832975567 23.136908037402296 0 0 0
4009 1 0.7246238382215289 3.8454469711065657 24.831781591083505 0 0 0
8 1 0.7393600675374254 1.4265837452974712 20.025743352537713 0 0 0
2009 1 3.6616448114513567 4.0765947469182855 25.090749648717132 0 0 0
6027 1 3.697579203375004 6.7763713792682925 20.01992665091162 0 0 0
4029 1 0.8578573917880807 9.739277263847763 24.960599290068792 0 0 0
28 1 0.7545662008152081 6.724068228199867 19.775664850041842 0 0 0
2028 1 3.793553688078954 9.82293633682913 21.383666455909275 0 0 0
29 1 0.757580248078801 6.776988647081739 23.279351865018082 0 0 0
4028 1 0.7781911068922831 9.729904874346246 21.88676881698992 0 0 0
2029 1 3.894157903675504 9.984259094963038 24.7602770499177 0 0 0
6028 1 3.9034323422479433 7.251609113215172 23.341745866289124 0 0 0
4027 1 0.6682110230011857 9.788106447374263 18.667517132825843 0 0 0
2010 1 3.7542803711628423 4.541437557537682 28.306227566077574 0 0 0
4010 1 0.6507131031313635 4.187037820765431 28.047803886999198 0 0 0
4011 1 3.739152178383568 4.090518746916292 31.16747430644036 0 0 0
11 1 0.5149292431343298 1.399588735571261 29.596927893644942 0 0 0
6009 1 3.5934090752571644 1.395271337690353 26.725362423748475 0 0 0
6010 1 3.4709501736112234 0.9098832500743924 29.92314148671022 0 0 0
4373 1 0.6901870959588612 3.891718330059544 31.504108005669778 0 1 0
10 1 0.5868556841384014 0.7665987754991558 26.45491529529665 0 0 0
6030 1 3.8248620609102204 7.144630062057355 30.032907356400653 0 0 0
7851 1 0.7318598537000396 9.502386308670996 31.50379279272154 1 0 0
4030 1 0.6809884162946065 9.55205392307221 27.962006423673188 0 0 0
31 1 0.657665043235762 7.035493721382364 29.59047957399705 0 0 0
2030 1 3.545126215596171 9.767512461321866 28.006680160933023 0 0 0
6029 1 3.6660530152715163 6.92598604857016 26.68982111016406 0 0 0
30 1 0.605617009353097 6.708876751445669 26.395375852758516 0 0 0
2137 1 3.667405923239195 9.924508224662217 31.37179574946574 0 1 0
1816 1 3.8991472893394903 3.9449582232878733 34.488850641379145 1 0 0
12 1 0.7219676861325914 3.7622779396077197 34.75700008239361 0 0 0
215 1 0.6435618802680692 0.6717919765014804 36.08044881819748 0 0 0
7617 1 0.4759248464157806 1.17983184498615 32.76076575571757 1 0 0
194 1 3.42574727279454 1.3711240089980574 32.92262152338511 0 1 0
472 1 4.021610826503274 4.272312488828258 37.49078609690209 0 0 0
4334 1 3.62743970415646 1.4635998559624577 36.28930239535304 0 1 0
1834 1 1.096819311151096 3.749278181719368 38.052183745945676 1 0 0
7632 1 0.8358376956545213 9.368988260849063 34.64148955864092 1 0 0
6051 1 3.5634838922371523 6.816853003794086 33.31252311948007 0 0 0
4074 1 0.6254920933349681 6.6725350088157445 36.31299336364446 0 0 0
3831 1 3.977439705685418 9.879234862809726 34.87373784416018 1 0 0
5617 1 0.5181671857558303 6.618185385226437 33.18176605861301 1 0 0
3853 1 3.5481002404904736 6.98300360084897 36.329238932330604 1 0 0
6212 1 3.5269823487990557 9.455725620385774 38.124790032631374 0 0 0
4414 1 0.5779422028383141 10.019908224406471 38.03954383149681 0 0 0
7834 1 3.9354322242261137 3.7109912700529106 41.17814975559282 1 0 0
3672 1 0.5867193825720205 3.608919509972844 41.04857507464036 1 0 0
3657 1 3.668647138763717 1.039304449593184 39.83405456826717 1 0 0
1399 1 3.744110646332815 1.039132891469926 42.71987921206562 0 1 0
7991 1 0.33894968523700997 1.131072683475857 42.99519639593003 1 1 0
4571 1 0.40034034834013843 1.1013056669956849 39.299227914939046 0 1 0
52 1 3.6861029618781656 4.080612035793354 44.31168174579964 0 0 0
2173 1 0.6312262080377151 3.8147546393955287 44.63465705613644 0 1 0
2053 1 0.8104892628274469 9.640928303135418 44.091723536805844 0 0 0
2195 1 3.846387050216217 9.083212858323133 44.73259269307556 0 1 0
6037 1 0.7014295752809558 6.761675041041899 39.481543920079034 0 0 0
2394 1 3.663612512321957 6.619020553599193 40.09551333549292 0 1 0
2232 1 3.744839750830992 9.761451215186806 41.35827327353102 0 0 0
1835 1 0.6869711819015554 6.5157797319177035 42.853028005837984 1 0 0
3876 1 0.86477838139569 9.262436309588926 41.11825443543627 1 0 0
598 1 3.7031495827569634 6.714014503279643 43.03462751321554 0 1 0
7859 1 3.7055425173100236 3.9350452381498897 48.25080821726577 1 0 0
639 1 0.7506408881738649 3.7503931822879872 47.67832038483116 0 0 0
2054 1 0.8315442483157467 1.1500585212890053 46.02836002488484 0 0 0
2997 1 3.732391386918934 1.1206837160868877 46.02165788461678 0 1 0
357 1 3.8103537478608347 0.8836215325975256 49.18782443377233 0 1 0
4016 1 0.6543483539040942 4.123546016921782 51.104822894564606 0 0 0
6573 1 0.7469893571613881 0.9055855310146766 49.83589593888389 0 1 0
4378 1 3.5666110370275472 3.5429668994111796 51.17972846486062 0 1 0
5975 1 0.9764916764626315 9.068310034306673 51.264340730454 1 1 0
6234 1 0.8145521688933446 9.574919414292959 48.141114508834534 0 0 0
7434 1 4.006079284393076 9.390501758155434 48.30501255008242 1 0 0
259 1 4.102517723078286 6.6092435585679965 49.76313387130113 0 0 0
6232 1 0.7251494721099587 6.468265223202708 49.18839989017981 0 0 0
6593 1 3.576789903246789 6.452752381540546 46.483929653807486 0 1 0
4059 1 0.5338330253259163 6.839465278351873 45.992771877004515 0 0 0
4018 1 3.8036101822246096 9.544035950710771 51.42360766072254 0 0 0
6059 1 0.6601467412792659 12.015519908558453 46.43038854556572 0 0 0
2158 1 3.83679646083763 3.724775107200797 54.20120988868206 0 1 0
5436 1 0.7935326031928107 3.7397968869172598 54.26936522292476 1 0 0
2180 1 4.10435202290211 1.0864888054889812 55.957707154284776 0 1 0
6018 1 3.7359118833510125 0.9671888303188394 52.696611604282985 0 0 0
7676 1 0.5365005713558135 1.09953024691711 52.77621453181734 1 0 0
4019 1 0.8063356794403216 1.3035646823444351 56.093858141090806 0 0 0
3400 1 0.8670524093177883 3.989341341876551 58.077029027048006 1 1 0
177 1 3.880997665748115 3.8262935331446624 57.51372256436761 0 1 0
4057 1 3.586607198917047 10.070890358065553 54.6450057870634 0 0 0
2238 1 4.0062130901772735 6.951492914973053 52.88568286852754 0 0 0
3639 1 0.8293784649920646 9.813962012232306 57.49579314867473 1 0 0
3879 1 3.646715200924511 6.572778932514353 56.055705114888255 1 0 0
4037 1 0.7603137865855025 6.740000127078395 56.615513164770185 0 0 0
3436 1 0.9214487423583555 6.7251706648376155 53.058387788576916 1 0 0
59 1 0.7077464646386114 9.839169127164526 54.29459530488536 0 0 0
2036 1 4.016381222242746 9.463609744901271 57.53892945640937 0 0 0
3998 1 3.901588231017584 4.125904394031835 60.82628887642556 1 1 0
40 1 0.767781163621923 4.0691388987455746 61.12651833729547 0 0 0
4255 1 3.82437031657265 1.0774790658510727 59.00245120477452 0 0 0
2020 1 0.640210470066805 1.0338850420439663 59.177836159212056 0 0 0
1 1 0.6220468556363772 1.0472377792451217 62.106816848418596 0 0 -1
6020 1 3.706592287175927 0.9916617118046012 62.841494297954924 0 0 0
2001 1 3.9737572198533577 3.966277110802058 64.25281399732916 0 0 -1
2021 1 3.8441241813030116 9.737739372759235 64.23561672092077 0 0 -1
2219 1 3.5165799236968454 6.923261756567609 59.425510555426676 0 0 0
6038 1 3.7801457686393096 9.811557612103682 60.88896949695495 0 0 0
21 1 0.8105675948470368 6.8812585951324765 63.20185873855066 0 0 -1
1619 1 0.7998741631626123 10.177407925295336 60.925136182829405 1 0 0
7459 1 0.6866876049307322 7.0287296809676265 59.909219104176316 1 0 0
6237 1 3.64225132556166 6.66830233176428 62.84053196743585 0 0 0
4021 1 0.8972025870276186 9.625405009252187 64.41048092611922 0 0 -1
2042 1 3.7367123727491265 15.758233662032518 1.7037676018503918 0 0 0
4042 1 0.7941546510636264 15.235967040463917 1.7404352869329198 0 0 0
6042 1 3.728637739674433 12.591028395130573 3.5652586999248 0 0 0
42 1 0.40027162175277176 12.345109711093668 0.5954339419399828 0 0 0
43 1 0.7943260440917008 12.730146524370689 3.6214107179127666 0 0 0
6041 1 3.7886241708910813 12.129377228210284 0.3717837466004086 0 0 0
4043 1 0.6595321345272787 15.279232908315912 5.043069474373392 0 0 0
2043 1 3.678429403551637 15.46572816942986 5.4144336878170645 0 0 0
6062 1 3.754621584427751 17.977351805828388 3.7777297370988743 0 0 0
6061 1 3.5909502197412673 18.575266765333893 0.7303024680653976 0 0 0
63 1 0.8152403103011783 18.393434731929265 3.68813113415829 0 0 0
2062 1 3.8680777771835313 21.333520863370186 2.0664218255306537 0 0 0
4063 1 0.7188219533546447 21.26220562595522 5.240464516517081 0 0 0
4062 1 0.8278152736952502 20.942795128492545 1.8790422956252302 0 0 0
2063 1 3.6173309509642904 21.428605227162603 5.144029820223156 0 0 0
62 1 0.5564970471822794 18.30435735098115 0.4899873976287237 0 0 0
2044 1 3.849430058145 15.548176264319062 8.43140978805062 0 0 0
4044 1 0.8039942119830172 14.836531139202245 8.609244983384881 0 0 0
45 1 0.598325953995102 12.425675986224855 10.287872652835672 0 0 0
6043 1 3.694985233556193 12.407865658750564 6.98776198694266 0 0 0
6044 1 3.8469733819547827 12.66618413557893 9.915147768621214 0 0 0
4045 1 0.7617544229663551 15.240216441950182 11.760173718034794 0 0 0
2045 1 3.881366391370481 15.161029730833054 11.664269653132957 0 0 0
44 1 0.8892986306314667 12.323200411751653 6.603131759322748 0 0 0
2064 1 3.7938432870522814 20.869613711969333 8.703489544170719 0 0 0
64 1 0.7967688289811536 18.311807779929275 6.7538038939290965 0 0 0
6064 1 3.817685286498648 18.255399550563883 10.280157075227882 0 0 0
2065 1 3.6991654817857507 21.331592502540055 12.009189645064675 0 0 0
4065 1 0.8445353998416554 20.779796515137352 11.817512184628507 0 0 0
4064 1 0.9652236472567046 21.558939408247035 8.839998289106267 0 0 0
65 1 0.8911731914600662 18.452801905741243 9.755256563471574 0 0 0
6063 1 3.8874312138919915 18.363313527615034 6.91489194033394 0 0 0
2046 1 3.94230076798432 15.663237202706837 14.693288995349635 0 0 0
4046 1 0.9744424229997204 15.381417768155682 15.183110256347117 0 0 0
46 1 0.8354136079799712 12.788614185918526 13.347367322837599 0 0 0
6046 1 3.720490261789033 12.362649967025234 16.949296255148028 0 0 0
47 1 0.8551196224661384 12.683837140419191 16.54820260741176 0 0 0
4047 1 0.6021866475305047 15.742617664624674 18.51620211018979 0 0 0
6045 1 3.892770978601943 12.66554218656631 13.529391418484126 0 0 0
2047 1 4.017392529841315 15.7628459840296 17.82900595581273 0 0 0
6066 1 3.735966494602793 18.49021351095341 16.75139673959815 0 0 0
4067 1 0.7008846755318419 21.20252491850546 18.504154771071136 0 0 0
4066 1 0.5161967216916723 21.003968416401776 15.26084138319623 0 0 0
66 1 0.833840979294441 17.9355688028549 13.30822052377499 0 0 0
67 1 0.6478585086223949 18.26231475478351 16.325563730042315 0 0 0
6065 1 3.919387685937587 18.496339046549547 13.273488858487992 0 0 0
2066 1 3.4382427629881684 21.14529021106997 15.160166832491733 0 0 0
2067 1 3.5286673508296937 21.02973737848177 18.265197547086267 0 0 0
2048 1 4.047645897163242 15.315670155861287 21.723834876871244 0 0 0
4048 1 1.1833067244387245 15.367625026268463 21.661082977717115 0 0 0
49 1 0.4873046433314816 12.44756225148535 23.325727190786928 0 0 0
48 1 0.8673952086004135 12.755124391559141 19.800654731420696 0 0 0
6048 1 3.5663223811163176 12.566153286561796 23.154230049014526 0 0 0
6047 1 3.779122252552815 12.422017333085348 20.021474117283034 0 0 0
2049 1 3.765972383797326 15.348556267405552 25.200917006817807 0 0 0
4049 1 0.6552677287978477 15.27301498439448 24.774454693082884 0 0 0
4069 1 0.8819615029883598 20.660842294426075 24.817649951925027 0 0 0
69 1 0.7015980229994527 18.094097154648143 23.113851699315124 0 0 0
68 1 0.6866452073197244 18.118691897964165 20.201496172856032 0 0 0
6068 1 3.784362438157838 18.127441146032826 23.0383445240477 0 0 0
2068 1 3.783592410406299 21.02979521678839 21.652963839284368 0 0 0
6067 1 3.8392994633516473 18.102772407549633 19.969902818730407 0 0 0
4068 1 0.632458092200102 20.87767058775593 21.585231653340042 0 0 0
2069 1 3.9803322304611237 20.826575288128097 24.626146579593442 0 0 0
2050 1 3.796556181105032 15.757516398939162 28.292182918758154 0 0 0
4050 1 0.3782211219581588 15.5551238240946 28.051128120053946 0 0 0
6049 1 3.444706127458793 12.607483168054838 26.534901574852903 0 0 0
6050 1 3.496317997783451 12.565509037005839 29.434907007188215 0 0 0
2033 1 3.9105031499797187 15.326080890145933 31.499854267452925 0 0 0
50 1 0.4624062716673163 12.579394744427336 26.69189086310335 0 0 0
2253 1 0.3688119001591481 12.596406031296667 30.04630442466725 0 0 0
4273 1 0.8013453805526525 15.41520529037688 31.262588561389435 0 0 0
4071 1 0.5288280574749331 18.28690144081457 30.020731865863322 0 0 0
6070 1 3.642921646839855 18.510346089175044 29.902864849475954 0 0 0
7891 1 0.5108438700561049 20.952301457811675 31.065924391163286 1 0 0
4070 1 0.4388170332592467 20.982796129570637 28.011273251467074 0 0 0
6072 1 3.4392446267670627 21.223085576753537 31.554465591489773 0 0 0
70 1 0.785534397454184 18.162900963332596 26.85903598560739 0 0 0
6069 1 3.8175177745917273 18.456419276344285 26.81206685511154 0 0 0
2070 1 3.51403443552457 21.222863590949707 28.358983365122825 0 0 0
7452 1 3.847376445586672 15.722552958824728 34.52298666444496 1 0 0
4051 1 0.7265325677758803 15.0191289548748 34.5715994220197 0 0 0
37 1 3.6219244544028824 12.77432073063867 33.11023164855215 0 0 0
3677 1 0.5818823642701156 15.192251677453973 37.95083561927566 1 0 0
71 1 3.878197385762059 15.551591680804554 37.63188186540883 0 0 0
7673 1 0.5468387038675278 12.272383386873274 33.27775895096319 1 0 0
2032 1 3.6648466965762747 12.85524560315742 35.92704999572912 0 0 0
6058 1 0.6222301472365481 12.715768647942124 36.37077419115717 0 0 0
1672 1 0.9545728924381658 20.708564969253494 38.03273994755481 1 0 0
4056 1 0.5456748164522383 18.24535486267392 36.4734727202836 0 0 0
2251 1 3.5200085354625106 18.274086297956394 36.4545728406974 0 0 0
693 1 4.094731118906699 20.996182449087375 38.02058050660191 0 0 0
4292 1 0.694059302817561 18.007314821904565 32.911196860498 0 0 0
1674 1 0.4726677372299726 20.82168477113398 34.56030610219362 1 0 0
4072 1 3.737636180439618 18.357884053564476 32.99155049095923 0 0 0
96 1 3.650736496701116 20.844847076193776 34.96128085631561 0 0 0
115 1 3.5535245359577567 14.910162304829814 40.51168289541288 0 0 0
5434 1 0.6373934639009968 15.198237630798367 41.244646828372915 1 0 0
6033 1 0.76820517265101 12.734518356263813 39.89163781532684 0 0 0
7795 1 0.46033722142785205 15.547991086233145 44.45958315111439 1 1 0
4036 1 3.9628775179419176 12.348936452411065 42.87964163235452 0 0 0
7855 1 3.303510161421511 15.345538682747694 43.53065959785803 1 0 0
5633 1 0.6640804252944574 12.422492530535171 42.983072959327366 1 0 0
3854 1 3.9007194464479875 12.065978659136922 39.578715914791324 1 0 0
5454 1 0.8073770957136182 21.240102756568522 44.716820150145786 1 0 0
3674 1 3.635001860429237 18.272805300896614 42.836586846953686 1 0 0
3658 1 0.9505463069846498 18.120674859648908 39.93796713028818 1 0 0
6273 1 0.6208596058699203 18.66289046879452 43.10733229858046 0 0 0
4298 1 3.757212647562697 21.276169451250496 41.165563945450366 0 0 0
6091 1 3.8400103684497324 18.33248311125121 39.59396600383391 0 0 0
1899 1 0.6839172427528075 21.00273385166647 40.98361083602137 1 0 0
72 1 3.795359776005111 21.070899200558017 44.14936734542141 0 0 0
7297 1 3.7027364242854928 15.743286333908475 48.827322055731024 1 0 0
75 1 0.5068112424951927 15.129675779355239 48.60398652323398 0 0 0
56 1 2.698203880218367 14.872559394549597 46.38254052656353 0 0 0
3494 1 3.624396885039718 12.19084276152652 46.1537070237954 1 0 0
5856 1 0.6545059695422735 12.182419067329793 49.84520721954164 1 0 0
2252 1 3.940905081067937 12.440289062758925 49.27041422512062 0 0 0
4098 1 3.629679341811852 21.165942406112244 51.25010617451859 0 0 0
2058 1 0.5375020518385945 21.14851199695224 51.03142100500651 0 0 0
6275 1 0.7366114432905424 18.162380861462314 45.948629862182464 0 0 0
7477 1 3.954097078457993 18.518372270431307 46.028382260840715 1 0 0
6096 1 3.7678238137117033 21.321958707814204 47.39029955703907 0 0 0
4258 1 3.8981082031021703 18.410049601958967 49.25557335804221 0 0 0
7912 1 0.6785610331788667 21.115630317161035 47.820646494602556 1 0 0
6060 1 0.8081040644112054 18.22975736213748 49.553682185565535 0 0 0
7695 1 3.5814106000778656 15.583561219809967 55.07685483054206 1 0 0
5659 1 0.5318529598526782 15.700287595213924 54.91562942923407 1 0 0
1659 1 0.6382960978809884 12.678509670786031 56.683312957517906 1 0 0
4076 1 3.690156031913747 12.680559432754805 56.11675465267114 0 0 0
4040 1 0.8232497475213352 12.536095247382434 52.9988194412911 0 0 0
6258 1 0.6643614219057077 15.191766557395898 51.603649952995376 0 0 0
5860 1 3.8254241337173056 15.598058643826162 51.981633599506765 1 0 0
7658 1 3.727068955597071 12.536185199667969 52.522932531076364 1 0 0
3859 1 0.8069626591181174 21.257225027167888 57.89390559242029 1 0 0
7877 1 3.931807461324177 18.369176089394358 56.14323268982817 1 0 0
4517 1 0.7766016135863345 21.187385213546474 54.38110955376401 0 0 0
5657 1 0.9680892974026896 18.39214157761511 56.707225164038086 1 0 0
2119 1 3.5299798533326374 18.512284546318565 52.78290326792479 0 0 0
76 1 0.42975880595008054 18.134465254008326 52.710861694009225 0 0 0
4277 1 3.777813456179236 21.48803528505396 54.98217776115265 0 0 0
2040 1 3.8239342763360566 15.890072843416116 61.36186404997641 0 0 0
2039 1 0.75058940509355 15.671418442604065 61.43710151310606 0 0 0
7637 1 3.599326512074361 12.840793587242507 62.332309127347166 1 0 0
5837 1 0.9008712497136817 12.900922356316153 59.74913708298695 1 0 0
41 1 0.6024618997208366 12.59996158792239 62.829435709312676 0 0 -1
4240 1 3.856662312663162 12.277614166738871 59.10492558921872 0 0 0
2041 1 3.6930331076554026 15.053429702772267 64.45373295952524 0 0 -1
5998 1 4.049859580154005 15.069977227290531 58.29802361678833 1 1 0
4041 1 0.6786756968584648 15.316156614345958 64.5630852700914 0 0 -1
1679 1 1.0929718218751399 15.888416365578317 58.160089603361996 1 0 0
2061 1 3.7794207811876097 21.212225416945575 64.62119650238608 0 0 -1
4061 1 0.9482870263885066 21.195030164775456 64.38026824934147 0 0 -1
1660 1 0.5822802549977106 18.233641041983407 59.861893529174225 1 0 0
2060 1 3.630205968408297 18.321147651746816 63.226254010614205 0 0 0
6080 1 3.664620042094418 21.068095142676878 61.44475123505537 0 0 0
7934 1 3.7393900852464093 18.240562779278495 59.15691091741354 1 0 0
7900 1 0.9008197382238312 21.020305257577043 60.90148181402226 1 0 0
61 1 0.6158520946019166 18.42780550099956 63.001775719759756 0 0 -1
58 1 3.6419126686110044 21.43988755775866 58.37363795048995 0 0 0
2082 1 3.8483950754602816 26.973175288976755 1.9978342276320196 0 0 0
4082 1 0.7843876602864723 26.72947394241643 2.0802149925489695 0 0 0
6081 1 3.6072146970536396 24.134201235844618 0.08064258521874534 0 0 0
83 1 0.5947772388765176 23.740340323774284 3.3765447946076774 0 0 0
6082 1 3.8631710170167555 24.292748820308624 3.7962783505559763 0 0 0
82 1 0.5958088936245283 24.1409902350344 0.14872848595802912 0 0 0
4083 1 0.8434237310831705 26.677817813753453 5.106970288749014 0 0 0
2083 1 3.8687665353691356 26.97590564309985 5.484080223076673 0 0 0
103 1 0.8719600912126113 29.469703244847707 4.161867845762708 0 0 0
6102 1 3.638061936647902 30.09640824160193 3.108227952569872 0 0 0
2102 1 3.4889206473636145 32.89214776298468 1.781561558608035 0 0 0
4102 1 0.5514503760108613 32.486932850318745 1.6143316008295625 0 0 0
6101 1 3.8591697906776545 29.280100882449407 -0.09736751921160236 0 0 0
102 1 0.8252446383610805 29.42165071951682 0.37002242842814415 0 0 0
4103 1 0.9725202798200985 32.69171115247913 4.786662782130912 0 0 0
2103 1 3.8727025697013273 32.67147194272874 5.284672730940578 0 0 0
2084 1 3.4507024655860805 27.18733964649919 8.647423936634805 0 0 0
4084 1 0.6124874542170364 26.63426955483948 8.505853443314775 0 0 0
6084 1 3.770465079544298 23.75266756525337 10.24505626741335 0 0 0
85 1 0.6840123073265314 24.21419340586985 10.478028702908867 0 0 0
4285 1 6.290013616262946 26.942382613273224 11.618404130771133 0 0 0
6083 1 3.696321675942209 23.93296248787602 7.019222316013632 0 0 0
84 1 0.6932107251207094 23.981310124972364 6.7470817303305965 0 0 0
4085 1 0.4732191740864313 27.168939327387886 11.87925911236279 0 0 0
104 1 0.7034460173330297 29.560739432774703 7.281046961834711 0 0 0
2105 1 3.644259158543175 32.71961573148221 11.876053498659065 0 0 0
6103 1 3.6345926959876067 29.972670088558417 6.682044832763024 0 0 0
105 1 0.5215055482306192 29.89466650520505 10.368723721659526 0 0 0
2104 1 3.6955370795947546 32.228734144389804 8.638362668312908 0 0 0
4104 1 0.6732381184686869 32.53566988604467 8.420371834166142 0 0 0
6104 1 3.5267068844002685 29.676716361633495 10.291921058231384 0 0 0
2086 1 3.253712253240293 27.046653769834155 15.295455093900966 0 0 0
4086 1 0.3022923551577379 26.356832726228923 15.261880621575227 0 0 0
87 1 0.8395348414843413 23.649052797388 16.753479816710453 0 0 0
6085 1 3.8463414956871613 23.759328650865776 13.771769766123565 0 0 0
4087 1 0.8290036330966548 26.594811259138115 18.354952043207017 0 0 0
6086 1 3.886208687431214 23.760952226726566 17.135057092135707 0 0 0
86 1 0.6502392913567692 23.666541909573198 13.479286582719947 0 0 0
2087 1 3.865074081514309 26.737705733217684 18.375079963680385 0 0 0
2085 1 3.4137324680465326 26.45663234140723 12.196872742507884 0 0 0
2106 1 3.649043607830836 32.677006885376144 15.078811322003713 0 0 0
107 1 0.7401203843749471 29.634005676124563 16.689912412022753 0 0 0
6106 1 3.8040894339497004 29.664778472996396 16.643666133634973 0 0 0
2107 1 3.728264090009292 32.216604373424204 18.21546925646677 0 0 0
106 1 0.6892523389625849 29.71815422287724 13.526799762832281 0 0 0
4106 1 0.6901748019215486 32.73538208433284 15.71533857415622 0 0 0
6105 1 3.8391778182484213 29.460824865104243 13.323953255440758 0 0 0
4105 1 0.5970388148791277 32.57146832448662 12.117723035643001 0 0 0
2088 1 3.8021776909933465 26.642737451561715 21.68345463642243 0 0 0
4088 1 0.883614994648056 26.843340052297535 21.579430879648253 0 0 0
88 1 0.6074924601166292 23.859229922301306 20.50589224225134 0 0 0
2089 1 4.06826561711767 26.838167036870427 24.713158670421194 0 0 0
6087 1 3.803648063178514 24.082687746231475 20.516515452070397 0 0 0
6088 1 3.6572784737378843 24.130911464299036 23.553091164538 0 0 0
89 1 0.5973650851619854 23.8913543951571 23.657597256783085 0 0 0
4089 1 0.6375739560313114 26.688555424699125 24.721137706441244 0 0 0
109 1 0.7237219618310702 29.581105479871887 23.463724613927386 0 0 0
4108 1 0.8352471362360587 32.36149900073744 21.851599730805326 0 0 0
2108 1 3.8321279249986464 32.72100454556464 21.963511749114264 0 0 0
108 1 0.8201413762123515 29.475413501091747 19.82167151721642 0 0 0
6108 1 3.8069086673821877 29.474583627613068 23.056123331396297 0 0 0
6107 1 3.8042340643011965 29.252160184037418 19.657662215600144 0 0 0
4109 1 0.7679310632269551 32.82209106712406 24.83057751076995 0 0 0
4107 1 0.764767665149011 32.42023900149448 18.79793296599107 0 0 0
2109 1 3.722480328050998 32.195307622367885 24.896922002558842 0 0 0
2090 1 3.812306265321036 26.754128773051775 28.3785932034861 0 0 0
4090 1 0.7102564835057095 26.619925889818038 27.8335621687584 0 0 0
4091 1 0.7335974588896019 26.60983541473536 31.762270370013184 0 0 0
6090 1 3.5710010210818712 24.132597866462813 29.747195679540646 0 0 0
90 1 0.7690163312762852 23.89863801282061 26.587028791558854 0 0 0
91 1 0.6558526820789403 23.927180025791174 30.08675440820439 0 0 0
2112 1 3.6357276848615374 27.15155802569946 31.292452058645452 0 0 0
6089 1 3.573239742005832 23.755041307575397 26.69924478078402 0 0 0
4110 1 0.6280979500827832 32.225358516496065 28.33067652216652 0 0 0
4532 1 0.830705256131774 32.66362647506689 31.78286665783768 0 0 0
6109 1 3.8570103483816496 29.616816021375016 26.72376856323367 0 0 0
110 1 0.7675495891852373 29.695512997402588 26.473882899748833 0 0 0
4311 1 3.8372376999291244 32.2233175355113 31.805355083932184 0 0 0
111 1 0.5014969513587164 29.562593679123445 30.294670215987633 0 0 0
6110 1 3.4755396636232767 29.731922643294904 29.96215748973702 0 0 0
2110 1 3.5650606149232233 32.658650401298004 28.48361618146969 0 0 0
1874 1 4.085168546626973 26.98281813820374 34.967052197269524 1 0 0
2094 1 0.7516009529679604 26.86125950174449 34.601194427608604 0 0 0
3891 1 0.8042398390860601 23.969772115256873 33.11010392080558 1 0 0
2091 1 3.6758861739209694 24.143393207835736 32.96424052050133 0 0 0
352 1 3.5333230449569717 23.940067655754245 36.19069750633545 0 0 0
4077 1 3.8128005959911455 26.511284220561997 38.34305887670197 0 0 0
6117 1 0.3926690054530806 23.4897118838394 36.58130680552422 0 0 0
3713 1 0.7840447940701143 26.445390047201887 37.83622003359161 1 0 0
5514 1 0.5939991991039977 29.36453670560265 36.422380311633226 1 0 0
4313 1 3.801029690610706 32.51364390286349 34.891848630548424 0 0 0
4512 1 0.755047202480795 32.87676640430743 34.71488934712635 0 0 0
913 1 3.7099360385522955 29.397479257129614 36.48680322327501 0 0 0
6111 1 3.6040939882217824 29.780968550622216 33.46550648036727 0 0 0
696 1 3.8804025872255323 32.58475877982704 38.22515613713632 0 0 0
2337 1 0.4700748194534885 29.78246236915865 33.17850611221468 0 0 0
6452 1 1.0985797568353441 32.18534809023133 38.38387246529668 0 0 0
7876 1 3.6327215171741845 26.94193274440875 41.61203577845151 1 0 0
133 1 0.48988779392193327 26.97451294729746 41.26135533346212 0 0 0
7532 1 0.9693096982279212 23.82522843556404 39.48643517775476 1 0 0
7638 1 3.8174847946348933 24.373719272403733 43.02358361451802 1 0 0
77 1 3.8925525205461264 23.71583080472755 39.4918268971183 0 0 0
2495 1 0.6778445843911929 23.642008377951353 42.64153278577309 0 0 0
5876 1 0.8836514189412519 26.933500445967713 44.246358401683935 1 0 0
4677 1 3.91727484546764 32.82261392859186 44.54062801566192 0 0 0
5933 1 3.6954609338096835 29.3169192791757 39.634901638320336 1 0 0
4092 1 3.922896739545659 29.538304298425086 42.671726632410454 0 0 0
4178 1 0.8900392486631157 32.57072297673419 44.946192680289485 0 0 0
1953 1 3.9884712537782354 32.79249021204572 41.29365632772727 1 0 0
319 1 0.8245702265412218 29.899410517788436 42.62161455577558 0 0 0
297 1 0.7321531563140149 32.66044763006025 41.414973866020105 0 0 0
7933 1 0.5592818617896982 29.384639826340088 39.60937094481674 1 0 0
4078 1 3.7641000936951645 26.746114970122914 48.08148057374965 0 0 0
5853 1 0.565095932875324 26.852580390444334 47.9179375231818 1 0 0